Beryllium
________________________________________________________________________________
____________________________________|___________________________________________
Symbol                              |                   Be
____________________________________|___________________________________________
Atomic Number                       |                   4
____________________________________|___________________________________________
Atomic Weight                       |               9.01218
____________________________________|___________________________________________
Melting Point                       |              1278*C 
____________________________________|___________________________________________
Boiling Point                       |               2970*C
____________________________________|___________________________________________
Specific Gravity                    |       1.85 (solid, 20*C); 
____________________________________|___________________________________________
Oxidation State                     |                   +2
____________________________________|___________________________________________
Electron Configuration              |               (He)2s^2
____________________________________|___________________________________________
____________________________________|___________________________________________

