Boron
________________________________________________________________________________
____________________________________|___________________________________________
Symbol                              |                   B
____________________________________|___________________________________________
Atomic Number                       |                   5
____________________________________|___________________________________________
Atomic Weight                       |               10.81
____________________________________|___________________________________________
Melting Point                       |              2079*C 
____________________________________|___________________________________________
Sublimation Point                   |               2550*C
____________________________________|___________________________________________
Specific Gravity                    |           2.34 (20*C)
____________________________________|___________________________________________
Oxidation State                     |               +3
____________________________________|___________________________________________
Electron Configuration              |           1s^2 2s^2 2p^1
____________________________________|___________________________________________
____________________________________|___________________________________________

