Helium
________________________________________________________________________________
____________________________________|___________________________________________
Symbol                              |                   He
____________________________________|___________________________________________
Atomic Number                       |                   2
____________________________________|___________________________________________
Atomic Weight                       |               4.0028
____________________________________|___________________________________________
Melting Point                       |              < -272.2*C (26atm)
____________________________________|___________________________________________
Boiling Point                       |               -268.934*C
____________________________________|___________________________________________
Density                             |       0.1785 g/l (gas, 0*C, 1 atm)
____________________________________|___________________________________________
Oxidation State                     |                   0
____________________________________|___________________________________________
Electron Configuration              |                   1s^2
____________________________________|___________________________________________
____________________________________|___________________________________________

