Lithium
________________________________________________________________________________
____________________________________|___________________________________________
Symbol                              |                   Li
____________________________________|___________________________________________
Atomic Number                       |                   3
____________________________________|___________________________________________
Atomic Weight                       |               6.941
____________________________________|___________________________________________
Melting Point                       |              180.54*C 
____________________________________|___________________________________________
Boiling Point                       |               1342*C
____________________________________|___________________________________________
Density                             |               0.534 (20*C)
____________________________________|___________________________________________
Oxidation State                     |                   +1
____________________________________|___________________________________________
Electron Configuration              |               (He)2s^1
____________________________________|___________________________________________
____________________________________|___________________________________________

